# Modelo de GO funcionalizado con alquil-aminas
1387 atoms
1570 bonds
2913 angles
5774 dihedrals
144 impropers 

18 atom types
14 bond types
27 angle types
38 dihedral types
2 improper types 

0 31 xlo xhi
0 31 ylo yhi
0 100 zlo zhi 

 Masses 

1       12.011
2       1.008
3       12.011
4       15.999
5       1.008
6       15.999
7       15.999
8       12.011
9       15.999
10      15.999
11      12.011
12      12.011
13      15.999
14      14.007
15      12.011
16      14.007
17      12.011
18      1.008 

 Pair Coeffs 

1       0.07    3.55
2       0.03    2.42
3       0.066   3.5
4       0.17    3.12
5       0.0     0.0
6       0.14    2.9
7       0.17    3.07
8       0.105   3.75
9       0.21    2.96
10      0.17    3.0
11      0.07    3.55
12      0.105   3.75
13      0.21    2.96
14      0.17    3.25
15      0.066   3.5
16      0.17    3.3
17      0.066   3.5
18      0.03    2.5 

 Bond Coeffs 

1       268.0   1.529
2       317.0   1.51
3       320.0   1.41
4       367.0   1.08
5       400.0   1.49
6       450.0   1.364
7       469.0   1.4
8       553.0   0.945
9       570.0   1.229
10      490.0   1.335
11      434.0   1.01
12      382.0   1.448
13      340.0   1.09
14      268.0   1.529 

 Angle Coeffs 

1       40.0    109.5
2       50.0    109.5
3       35.0    113.0
4       63.0    114.5
5       35.0    120.0
6       63.0    120.0
7       70.0    120.0
8       85.0    120.0
9       70.0    130.0
10      60.0    109.5
11      58.35   112.7
12      35.0    117.0
13      70.0    119.7
14      80.0    120.4
15      80.0    121.0
16      70.0    123.0
17      55.0    108.5
18      56.2    109.5
19      70.0    115.5
20      35.0    119.8
21      35.88   120.0
22      43.6    106.4
23      35.0    109.5
24      33.0    107.8
25      51.8    107.2
26      37.5    110.7
27      56.2    109.5 

 Dihedral Coeffs 

1       0.0     7.25    0.0     0.0 
2       0.0     0.0     0.0     0.0 
3       0.0     0.0     0.468   0.0 
4       0.0     -8.0    0.0     0.0 
5       0.0     2.1     0.0     0.0 
6       0.5     0.0     0.0     0.0 
7      -4.344  -1.714  0.0     0.0  
8       1.711   -0.5    0.663   0.0 
9       0.0     1.682   0.0     0.0 
10      0.0     0.0     0.366   0.0 
11      1.3     -0.05   0.2     0.0 
12      0.9     0.23    -0.505  0.0 
13     -0.521  -2.018    1.996   0.0
14      -0.9    0.0     0.0     0.0 
15      2.817   -0.169  0.543   0.0 
16      -0.55   0.0     0.0     0.0 
17      4.319   0.0     0.0     0.0 
18      -1.552  0.0     0.0     0.0 
19      9.508   0.0     0.0     0.0 
20      0.0     0.0     0.318   0.0 
21      0.0     5.0     0.0     0.0 
22      4.0     5.0     0.0     0.0 
23      0.65    -0.25   0.67    0.0 
24      -0.356  -0.174  0.492   0.0 
25     0.798  -0.371   0.674  -1.1  
26     0.0     0.0     0.0     0.0  
27     4.9     0.0    -4.9     0.0  
28     4.9     0.0    -4.9     0.0  
29     -0.303  0.722   0.417  -0.836
30      0.428  0.834   0.128  -1.39 
31      0.28   0.84    0.0    -1.12 
32      0.2    0.6     0.0    -0.8  
33      6.089  0.0    -6.089   0.0  
34      0.15   0.45    0.0    -0.6  
35     -0.979  1.216   0.709  -0.946
36      0.15   0.45    0.0    -0.6  
37      0.797 -0.371   0.674  -1.1  
38      0.7   -0.35    0.05   -0.4   

 Improper Coeffs 

1       5.0     180.0
2      10.0     180.0 

Atoms 

1   1   1   -0.115   0.0   0.0   0.0
2   1   11   -0.115   1.225252741274224   -0.7074   0.0
3   1   1   0.0   2.450505482548448   0.0   0.0
4   1   11   -0.115   3.675758223822672   -0.7074   0.0
5   1   1   0.0   4.901010965096896   0.0   0.0
6   1   11   -0.115   6.12626370637112   -0.7074   0.0
7   1   1   0.0   7.351516447645344   0.0   0.0
8   1   11   0.15   8.576769188919569   -0.7074   0.0
9   1   3   0.265   9.802021930193792   0.0   0.0
10   1   1   -0.115   11.027274671468016   -0.7074   0.0
11   1   3   0.2   12.25252741274224   0.0   0.0
12   1   1   -0.115   13.477780154016463   -0.7074   0.0
13   1   1   0.0   14.703032895290686   0.0   0.0
14   1   11   0.15   15.928285636564912   -0.7074   0.0
15   1   1   0.0   17.153538377839137   0.0   0.0
16   1   1   -0.115   18.378791119113362   -0.7074   0.0
17   1   1   0.0   19.604043860387584   0.0   0.0
18   1   1   -0.115   20.82929660166181   -0.7074   0.0
19   1   1   0.0   22.05454934293603   0.0   0.0
20   1   1   -0.115   23.279802084210257   -0.7074   0.0
21   1   1   0.0   24.50505482548448   0.0   0.0
22   1   1   -0.115   25.730307566758704   -0.7074   0.0
23   1   11   0.15   26.955560308032926   0.0   0.0
24   1   11   0.15   0.0   1.4148   0.0
25   1   1   0.0   1.225252741274224   2.1222000000000003   0.0
26   1   3   0.265   2.450505482548448   1.4148   0.0
27   1   3   0.2   3.675758223822672   2.1222000000000003   0.0
28   1   3   0.2   4.901010965096896   1.4148   0.0
29   1   1   0.0   6.12626370637112   2.1222000000000003   0.0
30   1   3   0.183   7.351516447645344   1.4148   0.0
31   1   3   0.265   8.576769188919569   2.1222000000000003   0.0
32   1   3   0.265   9.802021930193792   1.4148   0.0
33   1   3   0.265   11.027274671468016   2.1222000000000003   0.0
34   1   3   0.2   12.25252741274224   1.4148   0.0
35   1   3   0.2   13.477780154016463   2.1222000000000003   0.0
36   1   3   0.265   14.703032895290686   1.4148   0.0
37   1   3   0.265   15.928285636564912   2.1222000000000003   0.0
38   1   3   0.265   17.153538377839137   1.4148   0.0
39   1   3   0.265   18.378791119113362   2.1222000000000003   0.0
40   1   3   0.265   19.604043860387584   1.4148   0.0
41   1   3   0.2   20.82929660166181   2.1222000000000003   0.0
42   1   3   0.2   22.05454934293603   1.4148   0.0
43   1   1   0.0   23.279802084210257   2.1222000000000003   0.0
44   1   1   0.0   24.50505482548448   1.4148   0.0
45   1   1   0.0   25.730307566758704   2.1222000000000003   0.0
46   1   1   -0.115   26.955560308032926   1.4148   0.0
47   1   11   0.15   0.0   4.244400000000001   0.0
48   1   3   0.265   1.225252741274224   3.537000000000001   0.0
49   1   3   0.183   2.450505482548448   4.244400000000001   0.0
50   1   3   0.265   3.675758223822672   3.537000000000001   0.0
51   1   1   0.0   4.901010965096896   4.244400000000001   0.0
52   1   1   0.0   6.12626370637112   3.537000000000001   0.0
53   1   3   0.2   7.351516447645344   4.244400000000001   0.0
54   1   3   0.2   8.576769188919569   3.537000000000001   0.0
55   1   3   0.2   9.802021930193792   4.244400000000001   0.0
56   1   3   0.2   11.027274671468016   3.537000000000001   0.0
57   1   1   0.0   12.25252741274224   4.244400000000001   0.0
58   1   3   0.2   13.477780154016463   3.537000000000001   0.0
59   1   3   0.2   14.703032895290686   4.244400000000001   0.0
60   1   3   0.265   15.928285636564912   3.537000000000001   0.0
61   1   1   0.0   17.153538377839137   4.244400000000001   0.0
62   1   1   0.0   18.378791119113362   3.537000000000001   0.0
63   1   3   0.2   19.604043860387584   4.244400000000001   0.0
64   1   3   0.2   20.82929660166181   3.537000000000001   0.0
65   1   3   0.2   22.05454934293603   4.244400000000001   0.0
66   1   3   0.2   23.279802084210257   3.537000000000001   0.0
67   1   3   0.2   24.50505482548448   4.244400000000001   0.0
68   1   3   0.2   25.730307566758704   3.537000000000001   0.0
69   1   1   -0.115   26.955560308032926   4.244400000000001   0.0
70   1   1   -0.115   0.0   5.6592   0.0
71   1   3   0.2   1.225252741274224   6.3666   0.0
72   1   3   0.265   2.450505482548448   5.6592   0.0
73   1   3   0.183   3.675758223822672   6.3666   0.0
74   1   1   0.0   4.901010965096896   5.6592   0.0
75   1   3   0.2   6.12626370637112   6.3666   0.0
76   1   3   0.2   7.351516447645344   5.6592   0.0
77   1   1   0.0   8.576769188919569   6.3666   0.0
78   1   3   0.2   9.802021930193792   5.6592   0.0
79   1   3   0.2   11.027274671468016   6.3666   0.0
80   1   3   0.265   12.25252741274224   5.6592   0.0
81   1   1   0.0   13.477780154016463   6.3666   0.0
82   1   3   0.2   14.703032895290686   5.6592   0.0
83   1   3   0.183   15.928285636564912   6.3666   0.0
84   1   3   0.265   17.153538377839137   5.6592   0.0
85   1   1   0.0   18.378791119113362   6.3666   0.0
86   1   3   0.2   19.604043860387584   5.6592   0.0
87   1   3   0.2   20.82929660166181   6.3666   0.0
88   1   3   0.265   22.05454934293603   5.6592   0.0
89   1   1   0.0   23.279802084210257   6.3666   0.0
90   1   3   0.265   24.50505482548448   5.6592   0.0
91   1   1   0.0   25.730307566758704   6.3666   0.0
92   1   1   -0.115   26.955560308032926   5.6592   0.0
93   1   1   -0.115   0.0   8.488800000000001   0.0
94   1   3   0.2   1.225252741274224   7.781400000000001   0.0
95   1   3   0.265   2.450505482548448   8.488800000000001   0.0
96   1   3   0.265   3.675758223822672   7.781400000000001   0.0
97   1   3   0.265   4.901010965096896   8.488800000000001   0.0
98   1   3   0.2   6.12626370637112   7.781400000000001   0.0
99   1   3   0.2   7.351516447645344   8.488800000000001   0.0
100   1   1   0.0   8.576769188919569   7.781400000000001   0.0
101   1   1   0.0   9.802021930193792   8.488800000000001   0.0
102   1   3   0.2   11.027274671468016   7.781400000000001   0.0
103   1   3   0.2   12.25252741274224   8.488800000000001   0.0
104   1   3   0.183   13.477780154016463   7.781400000000001   0.0
105   1   3   0.265   14.703032895290686   8.488800000000001   0.0
106   1   3   0.265   15.928285636564912   7.781400000000001   0.0
107   1   3   0.2   17.153538377839137   8.488800000000001   0.0
108   1   1   0.0   18.378791119113362   7.781400000000001   0.0
109   1   3   0.183   19.604043860387584   8.488800000000001   0.0
110   1   3   0.265   20.82929660166181   7.781400000000001   0.0
111   1   1   0.0   22.05454934293603   8.488800000000001   0.0
112   1   3   0.265   23.279802084210257   7.781400000000001   0.0
113   1   3   0.183   24.50505482548448   8.488800000000001   0.0
114   1   3   0.265   25.730307566758704   7.781400000000001   0.0
115   1   11   0.15   26.955560308032926   8.488800000000001   0.0
116   1   1   -0.115   0.0   9.9036   0.0
117   1   3   0.2   1.225252741274224   10.611   0.0
118   1   3   0.2   2.450505482548448   9.9036   0.0
119   1   1   0.0   3.675758223822672   10.611   0.0
120   1   3   0.265   4.901010965096896   9.9036   0.0
121   1   3   0.2   6.12626370637112   10.611   0.0
122   1   3   0.2   7.351516447645344   9.9036   0.0
123   1   3   0.2   8.576769188919569   10.611   0.0
124   1   3   0.2   9.802021930193792   9.9036   0.0
125   1   3   0.2   11.027274671468016   10.611   0.0
126   1   3   0.265   12.25252741274224   9.9036   0.0
127   1   1   0.0   13.477780154016463   10.611   0.0
128   1   3   0.265   14.703032895290686   9.9036   0.0
129   1   1   0.0   15.928285636564912   10.611   0.0
130   1   3   0.2   17.153538377839137   9.9036   0.0
131   1   3   0.265   18.378791119113362   10.611   0.0
132   1   1   0.0   19.604043860387584   9.9036   0.0
133   1   3   0.2   20.82929660166181   10.611   0.0
134   1   3   0.265   22.05454934293603   9.9036   0.0
135   1   1   0.0   23.279802084210257   10.611   0.0
136   1   3   0.265   24.50505482548448   9.9036   0.0
137   1   3   0.265   25.730307566758704   10.611   0.0
138   1   11   0.15   26.955560308032926   9.9036   0.0
139   1   11   -0.115   0.0   12.733200000000002   0.0
140   1   3   0.265   1.225252741274224   12.025800000000002   0.0
141   1   3   0.2   2.450505482548448   12.733200000000002   0.0
142   1   3   0.2   3.675758223822672   12.025800000000002   0.0
143   1   1   0.0   4.901010965096896   12.733200000000002   0.0
144   1   1   0.0   6.12626370637112   12.025800000000002   0.0
145   1   1   0.0   7.351516447645344   12.733200000000002   0.0
146   1   3   0.183   8.576769188919569   12.025800000000002   0.0
147   1   3   0.265   9.802021930193792   12.733200000000002   0.0
148   1   3   0.2   11.027274671468016   12.025800000000002   0.0
149   1   1   0.0   12.25252741274224   12.733200000000002   0.0
150   1   3   0.265   13.477780154016463   12.025800000000002   0.0
151   1   3   0.265   14.703032895290686   12.733200000000002   0.0
152   1   3   0.265   15.928285636564912   12.025800000000002   0.0
153   1   3   0.265   17.153538377839137   12.733200000000002   0.0
154   1   3   0.265   18.378791119113362   12.025800000000002   0.0
155   1   3   0.265   19.604043860387584   12.733200000000002   0.0
156   1   3   0.2   20.82929660166181   12.025800000000002   0.0
157   1   3   0.2   22.05454934293603   12.733200000000002   0.0
158   1   3   0.2   23.279802084210257   12.025800000000002   0.0
159   1   3   0.183   24.50505482548448   12.733200000000002   0.0
160   1   3   0.265   25.730307566758704   12.025800000000002   0.0
161   1   11   0.15   26.955560308032926   12.733200000000002   0.0
162   1   11   -0.115   0.0   14.148   0.0
163   1   3   0.2   1.225252741274224   14.8554   0.0
164   1   3   0.265   2.450505482548448   14.148   0.0
165   1   1   0.0   3.675758223822672   14.8554   0.0
166   1   3   0.183   4.901010965096896   14.148   0.0
167   1   3   0.265   6.12626370637112   14.8554   0.0
168   1   1   0.0   7.351516447645344   14.148   0.0
169   1   3   0.2   8.576769188919569   14.8554   0.0
170   1   1   0.0   9.802021930193792   14.148   0.0
171   1   3   0.265   11.027274671468016   14.8554   0.0
172   1   3   0.265   12.25252741274224   14.148   0.0
173   1   3   0.265   13.477780154016463   14.8554   0.0
174   1   3   0.183   14.703032895290686   14.148   0.0
175   1   3   0.265   15.928285636564912   14.8554   0.0
176   1   3   0.265   17.153538377839137   14.148   0.0
177   1   3   0.183   18.378791119113362   14.8554   0.0
178   1   3   0.2   19.604043860387584   14.148   0.0
179   1   3   0.2   20.82929660166181   14.8554   0.0
180   1   3   0.265   22.05454934293603   14.148   0.0
181   1   3   0.2   23.279802084210257   14.8554   0.0
182   1   3   0.2   24.50505482548448   14.148   0.0
183   1   3   0.2   25.730307566758704   14.8554   0.0
184   1   1   -0.115   26.955560308032926   14.148   0.0
185   1   11   -0.115   0.0   16.977600000000002   0.0
186   1   3   0.2   1.225252741274224   16.270200000000003   0.0
187   1   3   0.2   2.450505482548448   16.977600000000002   0.0
188   1   3   0.2   3.675758223822672   16.270200000000003   0.0
189   1   3   0.2   4.901010965096896   16.977600000000002   0.0
190   1   3   0.265   6.12626370637112   16.270200000000003   0.0
191   1   1   0.0   7.351516447645344   16.977600000000002   0.0
192   1   3   0.2   8.576769188919569   16.270200000000003   0.0
193   1   3   0.183   9.802021930193792   16.977600000000002   0.0
194   1   3   0.265   11.027274671468016   16.270200000000003   0.0
195   1   1   0.0   12.25252741274224   16.977600000000002   0.0
196   1   3   0.183   13.477780154016463   16.270200000000003   0.0
197   1   3   0.265   14.703032895290686   16.977600000000002   0.0
198   1   3   0.2   15.928285636564912   16.270200000000003   0.0
199   1   3   0.2   17.153538377839137   16.977600000000002   0.0
200   1   3   0.265   18.378791119113362   16.270200000000003   0.0
201   1   1   0.0   19.604043860387584   16.977600000000002   0.0
202   1   1   0.0   20.82929660166181   16.270200000000003   0.0
203   1   1   0.0   22.05454934293603   16.977600000000002   0.0
204   1   3   0.2   23.279802084210257   16.270200000000003   0.0
205   1   1   0.0   24.50505482548448   16.977600000000002   0.0
206   1   1   0.0   25.730307566758704   16.270200000000003   0.0
207   1   11   0.15   26.955560308032926   16.977600000000002   0.0
208   1   1   -0.115   0.0   18.392400000000002   0.0
209   1   1   0.0   1.225252741274224   19.099800000000002   0.0
210   1   3   0.2   2.450505482548448   18.392400000000002   0.0
211   1   3   0.183   3.675758223822672   19.099800000000002   0.0
212   1   3   0.265   4.901010965096896   18.392400000000002   0.0
213   1   3   0.265   6.12626370637112   19.099800000000002   0.0
214   1   3   0.265   7.351516447645344   18.392400000000002   0.0
215   1   3   0.183   8.576769188919569   19.099800000000002   0.0
216   1   3   0.265   9.802021930193792   18.392400000000002   0.0
217   1   3   0.2   11.027274671468016   19.099800000000002   0.0
218   1   3   0.265   12.25252741274224   18.392400000000002   0.0
219   1   3   0.2   13.477780154016463   19.099800000000002   0.0
220   1   3   0.183   14.703032895290686   18.392400000000002   0.0
221   1   3   0.265   15.928285636564912   19.099800000000002   0.0
222   1   1   0.0   17.153538377839137   18.392400000000002   0.0
223   1   3   0.2   18.378791119113362   19.099800000000002   0.0
224   1   3   0.265   19.604043860387584   18.392400000000002   0.0
225   1   3   0.2   20.82929660166181   19.099800000000002   0.0
226   1   3   0.2   22.05454934293603   18.392400000000002   0.0
227   1   3   0.2   23.279802084210257   19.099800000000002   0.0
228   1   1   0.0   24.50505482548448   18.392400000000002   0.0
229   1   1   0.0   25.730307566758704   19.099800000000002   0.0
230   1   1   -0.115   26.955560308032926   18.392400000000002   0.0
231   1   1   -0.115   0.0   21.222   0.0
232   1   1   0.0   1.225252741274224   20.5146   0.0
233   1   3   0.2   2.450505482548448   21.222   0.0
234   1   3   0.265   3.675758223822672   20.5146   0.0
235   1   3   0.265   4.901010965096896   21.222   0.0
236   1   3   0.265   6.12626370637112   20.5146   0.0
237   1   3   0.265   7.351516447645344   21.222   0.0
238   1   3   0.265   8.576769188919569   20.5146   0.0
239   1   3   0.265   9.802021930193792   21.222   0.0
240   1   3   0.2   11.027274671468016   20.5146   0.0
241   1   3   0.2   12.25252741274224   21.222   0.0
242   1   3   0.2   13.477780154016463   20.5146   0.0
243   1   1   0.0   14.703032895290686   21.222   0.0
244   1   1   0.0   15.928285636564912   20.5146   0.0
245   1   3   0.265   17.153538377839137   21.222   0.0
246   1   3   0.2   18.378791119113362   20.5146   0.0
247   1   3   0.265   19.604043860387584   21.222   0.0
248   1   3   0.2   20.82929660166181   20.5146   0.0
249   1   3   0.2   22.05454934293603   21.222   0.0
250   1   3   0.2   23.279802084210257   20.5146   0.0
251   1   1   0.0   24.50505482548448   21.222   0.0
252   1   1   0.0   25.730307566758704   20.5146   0.0
253   1   1   -0.115   26.955560308032926   21.222   0.0
254   1   11   -0.115   0.0   22.6368   0.0
255   1   1   0.0   1.225252741274224   23.3442   0.0
256   1   3   0.2   2.450505482548448   22.6368   0.0
257   1   3   0.2   3.675758223822672   23.3442   0.0
258   1   3   0.2   4.901010965096896   22.6368   0.0
259   1   3   0.183   6.12626370637112   23.3442   0.0
260   1   3   0.265   7.351516447645344   22.6368   0.0
261   1   1   0.0   8.576769188919569   23.3442   0.0
262   1   3   0.2   9.802021930193792   22.6368   0.0
263   1   3   0.2   11.027274671468016   23.3442   0.0
264   1   3   0.2   12.25252741274224   22.6368   0.0
265   1   3   0.2   13.477780154016463   23.3442   0.0
266   1   1   0.0   14.703032895290686   22.6368   0.0
267   1   3   0.2   15.928285636564912   23.3442   0.0
268   1   3   0.2   17.153538377839137   22.6368   0.0
269   1   3   0.2   18.378791119113362   23.3442   0.0
270   1   3   0.265   19.604043860387584   22.6368   0.0
271   1   3   0.265   20.82929660166181   23.3442   0.0
272   1   1   0.0   22.05454934293603   22.6368   0.0
273   1   1   0.0   23.279802084210257   23.3442   0.0
274   1   1   0.0   24.50505482548448   22.6368   0.0
275   1   1   0.0   25.730307566758704   23.3442   0.0
276   1   11   -0.115   26.955560308032926   22.6368   0.0
277   1   11   -0.115   0.0   25.466400000000004   0.0
278   1   1   0.0   1.225252741274224   24.759000000000004   0.0
279   1   1   0.0   2.450505482548448   25.466400000000004   0.0
280   1   1   0.0   3.675758223822672   24.759000000000004   0.0
281   1   1   0.0   4.901010965096896   25.466400000000004   0.0
282   1   3   0.183   6.12626370637112   24.759000000000004   0.0
283   1   3   0.265   7.351516447645344   25.466400000000004   0.0
284   1   3   0.265   8.576769188919569   24.759000000000004   0.0
285   1   3   0.2   9.802021930193792   25.466400000000004   0.0
286   1   3   0.2   11.027274671468016   24.759000000000004   0.0
287   1   3   0.265   12.25252741274224   25.466400000000004   0.0
288   1   3   0.2   13.477780154016463   24.759000000000004   0.0
289   1   3   0.265   14.703032895290686   25.466400000000004   0.0
290   1   3   0.265   15.928285636564912   24.759000000000004   0.0
291   1   3   0.265   17.153538377839137   25.466400000000004   0.0
292   1   3   0.2   18.378791119113362   24.759000000000004   0.0
293   1   3   0.2   19.604043860387584   25.466400000000004   0.0
294   1   3   0.2   20.82929660166181   24.759000000000004   0.0
295   1   1   0.0   22.05454934293603   25.466400000000004   0.0
296   1   1   0.0   23.279802084210257   24.759000000000004   0.0
297   1   1   0.0   24.50505482548448   25.466400000000004   0.0
298   1   1   0.0   25.730307566758704   24.759000000000004   0.0
299   1   1   -0.115   26.955560308032926   25.466400000000004   0.0
300   1   11   -0.115   0.0   26.8812   0.0
301   1   11   -0.115   1.225252741274224   27.5886   0.0
302   1   1   0.0   2.450505482548448   26.8812   0.0
303   1   1   -0.115   3.675758223822672   27.5886   0.0
304   1   1   0.0   4.901010965096896   26.8812   0.0
305   1   11   -0.115   6.12626370637112   27.5886   0.0
306   1   1   0.0   7.351516447645344   26.8812   0.0
307   1   11   -0.115   8.576769188919569   27.5886   0.0
308   1   3   0.265   9.802021930193792   26.8812   0.0
309   1   1   -0.115   11.027274671468016   27.5886   0.0
310   1   1   0.0   12.25252741274224   26.8812   0.0
311   1   11   0.15   13.477780154016463   27.5886   0.0
312   1   1   0.0   14.703032895290686   26.8812   0.0
313   1   1   -0.115   15.928285636564912   27.5886   0.0
314   1   1   0.0   17.153538377839137   26.8812   0.0
315   1   11   0.15   18.378791119113362   27.5886   0.0
316   1   3   0.265   19.604043860387584   26.8812   0.0
317   1   1   -0.115   20.82929660166181   27.5886   0.0
318   1   1   0.0   22.05454934293603   26.8812   0.0
319   1   11   -0.115   23.279802084210257   27.5886   0.0
320   1   1   0.0   24.50505482548448   26.8812   0.0
321   1   11   0.15   25.730307566758704   27.5886   0.0
322   1   11   -0.115   26.955560308032926   26.8812   0.0
323   1   8   0.635   1.225252741274224   -2.1074   0.0
324   1   8   0.635   3.675758223822672   -2.1074   0.0
325   1   8   0.615   6.12626370637112   -2.1074   0.0
326   1   7   -0.585   8.576769188919569   -2.1074   0.0
327   1   2   0.115   11.027274671468016   -1.7844   0.0
328   1   2   0.115   13.477780154016463   -1.7844   0.0
329   1   7   -0.585   15.928285636564912   -2.1074   0.0
330   1   2   0.115   18.378791119113362   -1.7844   0.0
331   1   2   0.115   20.82929660166181   -1.7844   0.0
332   1   2   0.115   23.279802084210257   -1.7844   0.0
333   1   2   0.115   25.730307566758704   -1.7844   0.0
334   1   8   0.635   1.225252741274224   28.988599999999998   0.0
335   1   2   0.115   3.675758223822672   28.665599999999998   0.0
336   1   8   0.635   6.12626370637112   28.988599999999998   0.0
337   1   8   0.615   8.576769188919569   28.988599999999998   0.0
338   1   2   0.115   11.027274671468016   28.665599999999998   0.0
339   1   7   -0.585   13.477780154016463   28.988599999999998   0.0
340   1   2   0.115   15.928285636564912   28.665599999999998   0.0
341   1   7   -0.585   18.378791119113362   28.988599999999998   0.0
342   1   2   0.115   20.82929660166181   28.665599999999998   0.0
343   1   8   0.635   23.279802084210257   28.988599999999998   0.0
344   1   7   -0.585   25.730307566758704   28.988599999999998   0.0
345   1   2   0.115   -0.9327093598758405   -0.5385   0.0
346   1   7   -0.585   -1.2124355652982142   2.1148   0.0
347   1   7   -0.585   28.16799587333114   -0.6999999999999981   0.0
348   1   2   0.115   27.88826966790877   1.9533   0.0
349   1   7   -0.585   -1.2124355652982142   3.5444000000000004   0.0
350   1   2   0.115   -0.9327093598758405   6.1977   0.0
351   1   2   0.115   27.88826966790877   3.7059000000000006   0.0
352   1   2   0.115   27.88826966790877   6.1977   0.0
353   1   2   0.115   -0.9327093598758405   7.950300000000001   0.0
354   1   2   0.115   -0.9327093598758405   10.4421   0.0
355   1   7   -0.585   28.16799587333114   7.788800000000003   0.0
356   1   7   -0.585   28.16799587333114   10.603599999999998   0.0
357   1   8   0.635   -1.2124355652982137   12.0332   0.0
358   1   8   0.635   -1.2124355652982146   14.847999999999999   0.0
359   1   7   -0.585   28.16799587333114   12.033200000000003   0.0
360   1   2   0.115   27.88826966790877   14.686499999999999   0.0
361   1   8   0.615   -1.2124355652982146   16.277600000000003   0.0
362   1   2   0.115   -0.9327093598758405   18.9309   0.0
363   1   7   -0.585   28.16799587333114   16.277600000000007   0.0
364   1   2   0.115   27.88826966790877   18.9309   0.0
365   1   2   0.115   -0.9327093598758405   20.683500000000002   0.0
366   1   8   0.635   -1.2124355652982146   23.3368   0.0
367   1   2   0.115   27.88826966790877   20.683500000000002   0.0
368   1   8   0.635   28.16799587333114   23.336799999999997   0.0
369   1   8   0.635   -1.2124355652982126   24.7664   0.0
370   1   8   0.615   -1.2124355652982146   27.5812   0.0
371   1   2   0.115   27.88826966790877   24.9279   0.0
372   1   8   0.635   28.16799587333114   27.581199999999995   0.0
373   1   9   -0.44   1.225252741274224   -2.8074000000000003   -1.212435565298214
374   1   10   -0.53   1.225252741274224   -2.8074000000000003   1.212435565298214
375   1   5   0.45   1.225252741274224   -3.9074000000000004   1.212435565298214
376   1   9   -0.44   3.675758223822672   -2.8074000000000003   -1.212435565298214
377   1   10   -0.53   3.675758223822672   -2.8074000000000003   1.212435565298214
378   1   5   0.45   3.675758223822672   -3.9074000000000004   1.212435565298214
379   1   9   -0.5   6.12626370637112   -2.8074000000000003   1.212435565298214
380   1   14   -0.5   6.12626370637112   -2.8074000000000003   -1.212435565298214
381   1   5   0.3   6.12626370637112   -3.9074000000000004   -1.212435565298214
382   1   5   0.435   8.576769188919569   -2.8074000000000003   0.7
383   1   5   0.435   15.928285636564912   -2.8074000000000003   0.7
384   1   9   -0.44   1.225252741274224   29.688599999999997   1.212435565298214
385   1   10   -0.53   1.225252741274224   29.688599999999997   -1.212435565298214
386   1   5   0.45   1.225252741274224   30.7886   -1.212435565298214
387   1   9   -0.44   6.12626370637112   29.688599999999997   -1.212435565298214
388   1   10   -0.53   6.12626370637112   29.688599999999997   1.212435565298214
389   1   5   0.45   6.12626370637112   30.7886   1.212435565298214
390   1   9   -0.5   8.576769188919569   29.688599999999997   1.212435565298214
391   1   14   -0.5   8.576769188919569   29.688599999999997   -1.212435565298214
392   1   5   0.3   8.576769188919569   30.7886   -1.212435565298214
393   1   5   0.435   13.477780154016463   29.688599999999997   0.7
394   1   5   0.435   18.378791119113362   29.688599999999997   0.7
395   1   9   -0.44   23.279802084210257   29.688599999999997   -1.212435565298214
396   1   10   -0.53   23.279802084210257   29.688599999999997   1.212435565298214
397   1   5   0.45   23.279802084210257   30.7886   1.212435565298214
398   1   5   0.435   25.730307566758704   29.688599999999997   -0.7
399   1   5   0.435   -1.8186533479473213   2.4648   -0.7
400   1   5   0.435   28.774213655980247   -1.0499999999999972   0.7
401   1   5   0.435   -1.8186533479473213   3.1944000000000004   -0.7
402   1   5   0.435   28.774213655980247   7.438800000000004   -0.7
403   1   5   0.435   28.774213655980247   10.953599999999996   0.7
404   1   9   -0.44   -1.8186533479473206   11.683200000000001   1.212435565298214
405   1   10   -0.53   -1.8186533479473206   11.683200000000001   -1.212435565298214
406   1   5   0.45   -2.771281292110203   11.1332   -1.212435565298214
407   1   9   -0.44   -1.818653347947322   15.197999999999999   -1.212435565298214
408   1   10   -0.53   -1.818653347947322   15.197999999999999   1.212435565298214
409   1   5   0.45   -2.771281292110205   15.747999999999998   1.212435565298214
410   1   5   0.435   28.774213655980247   11.683200000000003   0.7
411   1   9   -0.5   -1.818653347947322   15.927600000000004   1.212435565298214
412   1   14   -0.5   -1.818653347947322   15.927600000000004   -1.212435565298214
413   1   5   0.3   -2.771281292110205   15.377600000000005   -1.212435565298214
414   1   5   0.435   28.774213655980247   15.927600000000009   -0.7
415   1   9   -0.44   -1.818653347947322   23.686799999999998   1.212435565298214
416   1   10   -0.53   -1.818653347947322   23.686799999999998   -1.212435565298214
417   1   5   0.45   -2.771281292110205   24.2368   -1.212435565298214
418   1   9   -0.44   28.774213655980247   23.686799999999995   1.212435565298214
419   1   10   -0.53   28.774213655980247   23.686799999999995   -1.212435565298214
420   1   5   0.45   29.726841600143132   24.23679999999999   -1.212435565298214
421   1   9   -0.44   -1.818653347947319   24.4164   -1.212435565298214
422   1   10   -0.53   -1.818653347947319   24.4164   1.212435565298214
423   1   5   0.45   -2.7712812921102006   23.8664   1.212435565298214
424   1   9   -0.5   -1.818653347947322   27.931199999999997   1.212435565298214
425   1   14   -0.5   -1.818653347947322   27.931199999999997   -1.212435565298214
426   1   5   0.3   -2.771281292110205   28.481199999999998   -1.212435565298214
427   1   9   -0.44   28.774213655980247   27.931199999999993   -1.212435565298214
428   1   10   -0.53   28.774213655980247   27.931199999999993   1.212435565298214
429   1   5   0.45   29.726841600143132   28.48119999999999   1.212435565298214
430   1   16   -0.778   8.576769188919569   12.025800000000002   1.7